REMARK  13 active torsions:
REMARK  status: ('A' for Active; 'I' for Inactive)
REMARK    1  A    between atoms: N_1  and  C_4 
REMARK    2  A    between atoms: C_4  and  C_5 
REMARK    3  A    between atoms: C_5  and  C_6 
REMARK    4  A    between atoms: C_6  and  C_7 
REMARK    5  A    between atoms: C_7  and  C_8 
REMARK    6  A    between atoms: C_8  and  C_9 
REMARK       I    between atoms: C_9  and  N_11 
REMARK    7  A    between atoms: N_11  and  C_13 
REMARK    8  A    between atoms: C_13  and  C_14 
REMARK    9  A    between atoms: C_14  and  C_15 
REMARK   10  A    between atoms: C_15  and  C_16 
REMARK   11  A    between atoms: C_16  and  C_17 
REMARK   12  A    between atoms: C_17  and  C_18 
REMARK   13  A    between atoms: C_18  and  O_20 
ROOT
HETATM    1  C   UNL     1      -2.526   4.394   2.785  1.00  0.00     0.217 C 
HETATM    2  O   UNL     1      -2.135   5.486   2.420  1.00  0.00    -0.274 OA
HETATM    3  N   UNL     1      -1.677   3.355   2.979  1.00  0.00    -0.361 N 
HETATM    4  H   UNL     1      -2.044   2.489   3.329  1.00  0.00     0.162 HD
ENDROOT
BRANCH   3   5
HETATM    5  C   UNL     1      -0.249   3.485   2.772  1.00  0.00     0.122 C 
BRANCH   5   6
HETATM    6  C   UNL     1       0.484   4.066   3.973  1.00  0.00     0.020 C 
BRANCH   6   7
HETATM    7  C   UNL     1       1.973   4.235   3.717  1.00  0.00     0.002 C 
BRANCH   7   8
HETATM    8  C   UNL     1       2.714   4.831   4.905  1.00  0.00     0.010 C 
BRANCH   8   9
HETATM    9  C   UNL     1       4.212   4.989   4.639  1.00  0.00     0.110 C 
BRANCH   9  10
HETATM   10  C   UNL     1       4.963   5.515   5.839  1.00  0.00     0.139 C 
HETATM   11  O   UNL     1       5.728   4.874   6.493  1.00  0.00    -0.650 OA
BRANCH  10  12
HETATM   12  O   UNL     1       4.706   6.800   6.176  1.00  0.00    -0.776 OA
HETATM   13  H   UNL     1       4.078   7.199   5.563  1.00  0.00     0.167 HD
ENDBRANCH  10  12
ENDBRANCH   9  10
ENDBRANCH   8   9
ENDBRANCH   7   8
ENDBRANCH   6   7
ENDBRANCH   5   6
ENDBRANCH   3   5
BRANCH   1  14
HETATM   14  C   UNL     1      -3.994   4.097   3.017  1.00  0.00     0.103 C 
BRANCH  14  15
HETATM   15  C   UNL     1      -4.698   5.230   3.754  1.00  0.00     0.009 C 
BRANCH  15  16
HETATM   16  C   UNL     1      -6.213   5.077   3.822  1.00  0.00     0.002 C 
BRANCH  16  17
HETATM   17  C   UNL     1      -6.701   3.879   4.627  1.00  0.00     0.030 C 
BRANCH  17  18
HETATM   18  C   UNL     1      -8.219   3.833   4.762  1.00  0.00     0.267 C 
BRANCH  18  19
HETATM   19  N   UNL     1      -8.759   2.712   5.516  1.00  0.00     0.078 N 
HETATM   20  H   UNL     1      -8.402   2.703   6.463  1.00  0.00     0.312 HD
HETATM   21  H   UNL     1      -8.507   1.830   5.089  1.00  0.00     0.312 HD
ENDBRANCH  18  19
ENDBRANCH  17  18
ENDBRANCH  16  17
ENDBRANCH  15  16
ENDBRANCH  14  15
ENDBRANCH   1  14
TORSDOF 13
